# generated by struct-searcher

11 atoms
2 atom types

0.0 1.963284178798410 xlo xhi
0.0 1.748448212323716 ylo yhi
0.0 4.871325478627874 zlo zhi

0.005747308065752 0.414343247604466 0.262024857720561 xy xz yz

Masses

1 47.86700000
2 26.98153860

Atoms

1 1 0.405045666174517 0.958069088300342 0.012501400300887
2 1 0.220516267713307 0.614601128757360 0.795726324172668
3 1 0.458021368206849 0.573352224320774 0.582841650343527
4 1 0.561164133379745 0.669927710602007 0.574567700620917
5 1 0.741491812861522 0.702179347825164 0.619862985922778
6 1 0.042159252368615 0.939065675312717 0.816436610211295
7 1 0.675510074493765 0.862864124547436 0.482366770028643
8 2 0.758988333886475 0.637261881030631 0.431209260150981
9 2 0.897674414158521 0.896042066157874 0.823856125976163
10 2 0.670968578673594 0.186393070507665 0.867148035322018
11 2 0.510568845444454 0.486740109583578 0.000886556880493
