# generated by struct-searcher

4 atoms
2 atom types

0.0 1.963284178798410 xlo xhi
0.0 1.748448212323716 ylo yhi
0.0 4.871325478627874 zlo zhi

Masses

1 47.86700000
2 26.98153860

Atoms

1 1 0.405045666174517 0.958069088300342 0.012501400300887
2 1 0.220516267713307 0.614601128757360 0.795726324172668
3 1 0.458021368206849 0.573352224320774 0.582841650343527
4 2 0.561164133379745 0.669927710602007 0.574567700620917
