# generated by struct-searcher

4 atoms
2 atom types

0.0 1.963284178798410 xlo xhi
0.0 1.748448212323716 ylo yhi
0.0 4.871325478627874 zlo zhi

Masses

1 47.86700000
2 26.98153860

Atoms

1 1 0.805905937090300 1.678409862356494 0.060898389804236
2 1 0.766172230955806 1.283098321743793 3.876241916957220
3 1 1.144017839857946 1.155195672150364 2.839211381323941
4 2 1.343643192752089 1.321884927994224 2.798906279231304
