# generated by struct-searcher

11 atoms
1 atom types

0.0 1.963284178798410 xlo xhi
0.0 1.748448212323716 ylo yhi
0.0 4.871325478627874 zlo zhi

0.005747308065752 0.414343247604466 0.262024857720561 xy xz yz

Masses

1 47.86700000

Atoms

1 1 0.805905937090300 1.678409862356494 0.060898389804236
2 1 0.766172230955806 1.283098321743793 3.876241916957220
3 1 1.144017839857946 1.155195672150364 2.839211381323941
4 1 1.343643192752089 1.321884927994224 2.798906279231304
5 1 1.716630828585983 1.390143736128199 3.019554356583979
6 1 0.426452689433396 1.855834387883555 3.977128461006855
7 1 1.531042801845348 1.635065320329115 2.349765536883962
8 1 1.672440973408801 1.227206941708905 2.100560655593748
9 1 2.108899027619434 1.782553932931701 4.013271337191338
10 1 1.677670186487408 0.553112971496572 4.224160318206247
11 1 1.005556520663251 0.851272174408129 0.004318707120197
